<?xml version="1.0" encoding="UTF-8"?>

<!-- generated on Thu Oct 19 17:37:45 2017 by SUMO Version 0.30.0
<?xml version="1.0" encoding="UTF-8"?>

<configuration xmlns:xsi="http://www.w3.org/2001/XMLSchema-instance" xsi:noNamespaceSchemaLocation="http://sumo.dlr.de/xsd/sumoConfiguration.xsd">

    <input>
        <net-file value="lust.net.xml"/>
        <route-files value="buslines.rou.xml,DUARoutes/local.0.rou.xml,DUARoutes/local.1.rou.xml,DUARoutes/local.2.rou.xml,transit.rou.xml"/>
        <additional-files value="vtypes.add.xml,busstops.add.xml,e1detectors.add.xml,lust.poly.xml,tll.static.xml"/>
    </input>

    <output>
        <summary-output value="dua.static.summary.xml"/>
        <tripinfo-output value="dua.static.tripinfo.xml"/>
    </output>

    <time>
        <begin value="0"/>
        <step-length value="0.1"/>
    </time>

    <processing>
        <ignore-junction-blocker value="20"/>
        <time-to-teleport value="600"/>
        <max-depart-delay value="600"/>
    </processing>

    <routing>
        <routing-algorithm value="dijkstra"/>
        <device.rerouting.probability value="0.7"/>
        <device.rerouting.period value="300"/>
        <device.rerouting.pre-period value="300"/>
    </routing>

    <report>
        <verbose value="true"/>
        <log value="dua.static.log"/>
    </report>

    <traci_server>
        <remote-port value="41201"/>
    </traci_server>

    <random_number>
        <seed value="0"/>
    </random_number>

</configuration>
-->

<tripinfos xmlns:xsi="http://www.w3.org/2001/XMLSchema-instance" xsi:noNamespaceSchemaLocation="http://sumo.dlr.de/xsd/tripinfo_file.xsd">
    <tripinfo id="randUni834:1" depart="5.00" departLane="--32406#3_0" departPos="29.56" departSpeed="0.00" departDelay="0.00" arrival="37.30" arrivalLane="--31212_0" arrivalPos="112.23" arrivalSpeed="1.03" duration="32.30" routeLength="411.07" waitSteps="0" timeLoss="4.88" rerouteNo="0" devices="tripinfo_randUni834:1" vType="passenger2b" speedFactor="1.09" vaporized=""/>
    <tripinfo id="randUni16882:1" depart="14.00" departLane="-32340#7_0" departPos="244.97" departSpeed="0.00" departDelay="0.00" arrival="104.20" arrivalLane="-32660_0" arrivalPos="121.25" arrivalSpeed="1.07" duration="90.20" routeLength="1119.70" waitSteps="0" timeLoss="12.88" rerouteNo="0" devices="tripinfo_randUni16882:1" vType="passenger1" speedFactor="1.06" vaporized=""/>
    <tripinfo id="randUni11317:1" depart="11.00" departLane="--31490_0" departPos="14.61" departSpeed="0.00" departDelay="0.00" arrival="187.40" arrivalLane="-31290#1_0" arrivalPos="33.66" arrivalSpeed="0.79" duration="176.40" routeLength="1668.31" waitSteps="366" timeLoss="69.08" rerouteNo="1" devices="tripinfo_randUni11317:1 routing_randUni11317:1" vType="passenger2a" speedFactor="1.14" vaporized=""/>
    <tripinfo id="NBSKMS_Nightbus_0" depart="39.00" departLane="-32278#1_0" departPos="0.00" departSpeed="0.00" departDelay="0.00" arrival="290.50" arrivalLane="-32278#5_0" arrivalPos="841.44" arrivalSpeed="12.41" duration="251.50" routeLength="1905.19" waitSteps="47" timeLoss="37.60" rerouteNo="0" devices="tripinfo_NBSKMS_Nightbus_0" vType="bus" speedFactor="0.90" vaporized=""/>
    <tripinfo id="NBSKMS_Nightbus_1" depart="39.00" departLane="--32278#5_0" departPos="0.00" departSpeed="0.00" departDelay="0.00" arrival="312.20" arrivalLane="--32278#1_0" arrivalPos="139.07" arrivalSpeed="15.37" duration="273.20" routeLength="1910.02" waitSteps="426" timeLoss="88.66" rerouteNo="0" devices="tripinfo_NBSKMS_Nightbus_1" vType="bus" speedFactor="1.12" vaporized=""/>
    <tripinfo id="0FRtoLU.0" depart="42.00" departLane="-32426#0_0" departPos="5.10" departSpeed="13.89" departDelay="0.00" arrival="313.00" arrivalLane="-32400#5_0" arrivalPos="257.03" arrivalSpeed="32.97" duration="271.00" routeLength="6507.94" waitSteps="0" timeLoss="7.57" rerouteNo="0" devices="tripinfo_0FRtoLU.0 routing_0FRtoLU.0" vType="passenger1" speedFactor="0.92" vaporized=""/>
    <tripinfo id="0FRtoLU.1" depart="63.00" departLane="-32426#0_0" departPos="5.10" departSpeed="13.89" departDelay="0.00" arrival="314.10" arrivalLane="-32400#5_0" arrivalPos="257.03" arrivalSpeed="34.62" duration="251.10" routeLength="6507.94" waitSteps="0" timeLoss="9.98" rerouteNo="0" devices="tripinfo_0FRtoLU.1 routing_0FRtoLU.1" vType="passenger1" speedFactor="1.00" vaporized=""/>
    <tripinfo id="randUni18368:1" depart="0.00" departLane="-31606#0_0" departPos="163.91" departSpeed="0.00" departDelay="0.00" arrival="318.10" arrivalLane="-30496#4_1" arrivalPos="93.87" arrivalSpeed="0.71" duration="318.10" routeLength="2889.48" waitSteps="884" timeLoss="127.76" rerouteNo="1" devices="tripinfo_randUni18368:1 routing_randUni18368:1" vType="passenger2a" speedFactor="1.09" vaporized=""/>
    <tripinfo id="randUni13606:1" depart="27.00" departLane="--32244_0" departPos="138.06" departSpeed="0.00" departDelay="0.00" arrival="339.10" arrivalLane="-31068#1_0" arrivalPos="222.75" arrivalSpeed="0.88" duration="312.10" routeLength="2804.93" waitSteps="623" timeLoss="98.16" rerouteNo="0" devices="tripinfo_randUni13606:1 routing_randUni13606:1" vType="passenger4" speedFactor="0.92" vaporized=""/>
    <tripinfo id="0DEtoLU.0" depart="15.00" departLane="-31622#0_0" departPos="4.60" departSpeed="13.89" departDelay="0.00" arrival="362.50" arrivalLane="-32400#5_1" arrivalPos="257.03" arrivalSpeed="37.30" duration="347.50" routeLength="11354.22" waitSteps="0" timeLoss="5.46" rerouteNo="0" devices="tripinfo_0DEtoLU.0" vType="passenger2a" speedFactor="1.03" vaporized=""/>
    <tripinfo id="0LUtoBE.0" depart="12.00" departLane="-30706#0_0" departPos="4.60" departSpeed="13.89" departDelay="0.00" arrival="364.30" arrivalLane="-31622#16_2" arrivalPos="305.81" arrivalSpeed="39.22" duration="352.30" routeLength="11318.23" waitSteps="0" timeLoss="11.64" rerouteNo="0" devices="tripinfo_0LUtoBE.0 routing_0LUtoBE.0" vType="passenger2a" speedFactor="1.09" vaporized=""/>
    <tripinfo id="randUni3742:1" depart="283.00" departLane="--32124#1_0" departPos="69.83" departSpeed="0.00" departDelay="0.00" arrival="368.00" arrivalLane="--31894#2_0" arrivalPos="8.93" arrivalSpeed="0.75" duration="85.00" routeLength="404.83" waitSteps="436" timeLoss="61.70" rerouteNo="0" devices="tripinfo_randUni3742:1 routing_randUni3742:1" vType="passenger2a" speedFactor="1.26" vaporized=""/>
    <tripinfo id="0DEtoLU.1" depart="43.00" departLane="-31622#0_0" departPos="6.10" departSpeed="13.89" departDelay="0.00" arrival="379.80" arrivalLane="-32400#5_1" arrivalPos="257.03" arrivalSpeed="38.60" duration="336.80" routeLength="11352.72" waitSteps="0" timeLoss="6.49" rerouteNo="0" devices="tripinfo_0DEtoLU.1 routing_0DEtoLU.1" vType="passenger3" speedFactor="1.07" vaporized=""/>
    <tripinfo id="0FRtoLU.2" depart="119.00" departLane="-32426#0_0" departPos="6.10" departSpeed="13.89" departDelay="0.00" arrival="386.30" arrivalLane="-32400#5_0" arrivalPos="257.03" arrivalSpeed="33.48" duration="267.30" routeLength="6506.94" waitSteps="0" timeLoss="7.61" rerouteNo="0" devices="tripinfo_0FRtoLU.2 routing_0FRtoLU.2" vType="passenger3" speedFactor="0.93" vaporized=""/>
    <tripinfo id="0LUtoDE.0" depart="45.00" departLane="-30706#0_0" departPos="5.10" departSpeed="13.89" departDelay="0.00" arrival="387.20" arrivalLane="-30668#16_1" arrivalPos="272.49" arrivalSpeed="34.42" duration="342.20" routeLength="10511.80" waitSteps="0" timeLoss="5.56" rerouteNo="0" devices="tripinfo_0LUtoDE.0" vType="passenger1" speedFactor="0.96" vaporized=""/>
    <tripinfo id="0FRtoLU.3" depart="129.00" departLane="-32426#0_0" departPos="5.10" departSpeed="13.89" departDelay="0.00" arrival="389.80" arrivalLane="-32400#5_0" arrivalPos="257.03" arrivalSpeed="34.35" duration="260.80" routeLength="6507.94" waitSteps="0" timeLoss="8.34" rerouteNo="0" devices="tripinfo_0FRtoLU.3" vType="passenger1" speedFactor="0.95" vaporized=""/>
    <tripinfo id="0FRtoBE.0" depart="96.00" departLane="-32426#0_0" departPos="4.60" departSpeed="13.89" departDelay="0.00" arrival="419.60" arrivalLane="-31622#16_2" arrivalPos="305.81" arrivalSpeed="34.51" duration="323.60" routeLength="9592.32" waitSteps="0" timeLoss="10.19" rerouteNo="0" devices="tripinfo_0FRtoBE.0" vType="passenger2b" speedFactor="0.96" vaporized=""/>
    <tripinfo id="randUni10908:1" depart="127.00" departLane="-31302_0" departPos="3.00" departSpeed="0.00" departDelay="0.00" arrival="425.90" arrivalLane="--32160#3_0" arrivalPos="33.16" arrivalSpeed="0.81" duration="298.90" routeLength="3123.48" waitSteps="352" timeLoss="88.64" rerouteNo="1" devices="tripinfo_randUni10908:1 routing_randUni10908:1" vType="passenger2b" speedFactor="1.09" vaporized=""/>
    <tripinfo id="0BEtoFR.0" depart="96.00" departLane="-30668#0_0" departPos="7.10" departSpeed="13.89" departDelay="0.00" arrival="430.90" arrivalLane="-31366#3_1" arrivalPos="20.69" arrivalSpeed="29.94" duration="334.90" routeLength="9433.02" waitSteps="0" timeLoss="4.24" rerouteNo="0" devices="tripinfo_0BEtoFR.0 routing_0BEtoFR.0" vType="passenger5" speedFactor="0.93" vaporized=""/>
    <tripinfo id="randUni8397:1" depart="348.00" departLane="--30528#29_0" departPos="21.67" departSpeed="0.00" departDelay="0.00" arrival="441.00" arrivalLane="--30778#0_0" arrivalPos="4.30" arrivalSpeed="1.09" duration="93.00" routeLength="903.57" waitSteps="0" timeLoss="21.19" rerouteNo="0" devices="tripinfo_randUni8397:1 routing_randUni8397:1" vType="passenger1" speedFactor="0.92" vaporized=""/>
    <tripinfo id="0FRtoLU.4" depart="192.00" departLane="-32426#0_0" departPos="4.60" departSpeed="13.89" departDelay="0.00" arrival="443.00" arrivalLane="-32400#5_0" arrivalPos="257.03" arrivalSpeed="36.40" duration="251.00" routeLength="6508.44" waitSteps="0" timeLoss="12.01" rerouteNo="0" devices="tripinfo_0FRtoLU.4" vType="passenger2a" speedFactor="1.01" vaporized=""/>
    <tripinfo id="0BEtoFR.1" depart="145.00" departLane="-30668#0_0" departPos="4.60" departSpeed="13.89" departDelay="0.00" arrival="452.80" arrivalLane="-31366#3_1" arrivalPos="20.69" arrivalSpeed="33.71" duration="307.80" routeLength="9435.52" waitSteps="0" timeLoss="9.04" rerouteNo="0" devices="tripinfo_0BEtoFR.1 routing_0BEtoFR.1" vType="passenger2a" speedFactor="0.93" vaporized=""/>
    <tripinfo id="0DEtoFR.2" depart="14.00" departLane="-31622#0_0" departPos="5.10" departSpeed="13.89" departDelay="0.00" arrival="457.70" arrivalLane="-31366#3_1" arrivalPos="20.69" arrivalSpeed="40.61" duration="443.70" routeLength="15900.65" waitSteps="0" timeLoss="26.31" rerouteNo="0" devices="tripinfo_0DEtoFR.2" vType="passenger1" speedFactor="1.13" vaporized=""/>
    <tripinfo id="0LUtoDE.1" depart="122.00" departLane="-30706#0_0" departPos="4.60" departSpeed="13.89" departDelay="0.00" arrival="458.30" arrivalLane="-30668#16_1" arrivalPos="272.49" arrivalSpeed="35.02" duration="336.30" routeLength="10512.30" waitSteps="0" timeLoss="5.36" rerouteNo="0" devices="tripinfo_0LUtoDE.1 routing_0LUtoDE.1" vType="passenger2b" speedFactor="0.97" vaporized=""/>
    <tripinfo id="0FRtoLU.5" depart="243.00" departLane="-32426#0_0" departPos="5.10" departSpeed="13.89" departDelay="0.00" arrival="475.50" arrivalLane="-32400#5_0" arrivalPos="257.03" arrivalSpeed="38.93" duration="232.50" routeLength="6507.94" waitSteps="0" timeLoss="9.67" rerouteNo="0" devices="tripinfo_0FRtoLU.5 routing_0FRtoLU.5" vType="passenger1" speedFactor="1.08" vaporized=""/>
    <tripinfo id="randUni2416:1" depart="301.00" departLane="--32280#0_0" departPos="245.57" departSpeed="0.00" departDelay="0.00" arrival="490.10" arrivalLane="-31904#2_0" arrivalPos="17.64" arrivalSpeed="0.71" duration="189.10" routeLength="1801.75" waitSteps="233" timeLoss="55.41" rerouteNo="1" devices="tripinfo_randUni2416:1 routing_randUni2416:1" vType="passenger5" speedFactor="0.97" vaporized=""/>
    <tripinfo id="0LUtoBE.1" depart="133.00" departLane="-30706#0_0" departPos="5.10" departSpeed="13.89" departDelay="0.00" arrival="495.30" arrivalLane="-31622#16_2" arrivalPos="305.81" arrivalSpeed="38.16" duration="362.30" routeLength="11317.73" waitSteps="0" timeLoss="12.50" rerouteNo="0" devices="tripinfo_0LUtoBE.1" vType="passenger1" speedFactor="1.06" vaporized=""/>
    <tripinfo id="0DEtoFR.1" depart="8.00" departLane="-31622#0_0" departPos="4.60" departSpeed="13.89" departDelay="0.00" arrival="501.90" arrivalLane="-31366#3_1" arrivalPos="20.69" arrivalSpeed="34.92" duration="493.90" routeLength="15901.15" waitSteps="0" timeLoss="9.16" rerouteNo="0" devices="tripinfo_0DEtoFR.1 routing_0DEtoFR.1" vType="passenger2b" speedFactor="0.97" vaporized=""/>
    <tripinfo id="randUni1024:1" depart="139.00" departLane="-32924#6_0" departPos="34.62" departSpeed="0.00" departDelay="0.00" arrival="506.90" arrivalLane="-32392#1_0" arrivalPos="62.48" arrivalSpeed="0.83" duration="367.90" routeLength="3460.30" waitSteps="961" timeLoss="133.05" rerouteNo="0" devices="tripinfo_randUni1024:1" vType="passenger2b" speedFactor="0.99" vaporized=""/>
    <tripinfo id="0LUtoDE.2" depart="205.00" departLane="-30706#0_0" departPos="4.60" departSpeed="13.89" departDelay="0.00" arrival="508.10" arrivalLane="-30668#16_1" arrivalPos="272.49" arrivalSpeed="39.13" duration="303.10" routeLength="10512.30" waitSteps="0" timeLoss="6.42" rerouteNo="0" devices="tripinfo_0LUtoDE.2 routing_0LUtoDE.2" vType="passenger2b" speedFactor="1.09" vaporized=""/>
    <tripinfo id="0BEtoFR.3" depart="239.00" departLane="-30668#0_0" departPos="4.60" departSpeed="13.89" departDelay="0.00" arrival="513.50" arrivalLane="-31366#3_2" arrivalPos="20.69" arrivalSpeed="39.21" duration="274.50" routeLength="9435.52" waitSteps="0" timeLoss="17.79" rerouteNo="0" devices="tripinfo_0BEtoFR.3 routing_0BEtoFR.3" vType="passenger2a" speedFactor="1.09" vaporized=""/>
    <tripinfo id="0FRtoBE.1" depart="190.00" departLane="-32426#0_0" departPos="4.60" departSpeed="13.89" departDelay="0.00" arrival="518.90" arrivalLane="-31622#16_2" arrivalPos="305.81" arrivalSpeed="33.86" duration="328.90" routeLength="9592.32" waitSteps="0" timeLoss="9.94" rerouteNo="0" devices="tripinfo_0FRtoBE.1" vType="passenger2b" speedFactor="0.94" vaporized=""/>
    <tripinfo id="randUni19500:1" depart="198.00" departLane="-31230#5_0" departPos="128.05" departSpeed="0.00" departDelay="0.00" arrival="519.10" arrivalLane="--30968#1_0" arrivalPos="52.95" arrivalSpeed="1.10" duration="321.10" routeLength="2465.81" waitSteps="1028" timeLoss="168.93" rerouteNo="0" devices="tripinfo_randUni19500:1" vType="passenger2b" speedFactor="1.20" vaporized=""/>
    <tripinfo id="0BEtoFR.2" depart="215.00" departLane="-30668#0_0" departPos="4.60" departSpeed="13.89" departDelay="0.00" arrival="522.70" arrivalLane="-31366#3_1" arrivalPos="20.69" arrivalSpeed="33.25" duration="307.70" routeLength="9435.52" waitSteps="0" timeLoss="5.17" rerouteNo="0" devices="tripinfo_0BEtoFR.2 routing_0BEtoFR.2" vType="passenger2b" speedFactor="0.92" vaporized=""/>
    <tripinfo id="0DEtoFR.3" depart="98.00" departLane="-31622#0_0" departPos="5.10" departSpeed="13.89" departDelay="0.00" arrival="524.10" arrivalLane="-31366#3_1" arrivalPos="20.69" arrivalSpeed="36.97" duration="426.10" routeLength="15900.65" waitSteps="0" timeLoss="9.55" rerouteNo="0" devices="tripinfo_0DEtoFR.3 routing_0DEtoFR.3" vType="passenger1" speedFactor="1.13" vaporized=""/>
    <tripinfo id="0FRtoLU.6" depart="272.00" departLane="-32426#0_0" departPos="4.60" departSpeed="13.89" departDelay="0.00" arrival="525.60" arrivalLane="-32400#5_0" arrivalPos="257.03" arrivalSpeed="36.35" duration="253.60" routeLength="6508.44" waitSteps="0" timeLoss="14.82" rerouteNo="0" devices="tripinfo_0FRtoLU.6 routing_0FRtoLU.6" vType="passenger2b" speedFactor="1.01" vaporized=""/>
    <tripinfo id="0DEtoFR.0" depart="0.00" departLane="-31622#0_0" departPos="5.10" departSpeed="13.89" departDelay="0.00" arrival="530.90" arrivalLane="-31366#3_1" arrivalPos="20.69" arrivalSpeed="32.20" duration="530.90" routeLength="15900.65" waitSteps="0" timeLoss="5.07" rerouteNo="0" devices="tripinfo_0DEtoFR.0" vType="passenger1" speedFactor="0.89" vaporized=""/>
    <tripinfo id="0DEtoLU.2" depart="160.00" departLane="-31622#0_0" departPos="5.10" departSpeed="13.89" departDelay="0.00" arrival="542.20" arrivalLane="-32400#5_1" arrivalPos="257.03" arrivalSpeed="34.14" duration="382.20" routeLength="11353.72" waitSteps="0" timeLoss="8.19" rerouteNo="0" devices="tripinfo_0DEtoLU.2 routing_0DEtoLU.2" vType="passenger1" speedFactor="0.95" vaporized=""/>
    <tripinfo id="0LUtoFR.0" depart="235.00" departLane="-30706#0_0" departPos="5.10" departSpeed="13.89" departDelay="0.00" arrival="548.20" arrivalLane="-31366#3_1" arrivalPos="20.69" arrivalSpeed="37.43" duration="313.20" routeLength="8111.00" waitSteps="0" timeLoss="15.33" rerouteNo="0" devices="tripinfo_0LUtoFR.0" vType="passenger1" speedFactor="1.04" vaporized=""/>
</tripinfos>
